<?xml version="1.0" encoding="UTF-8"?>
<VTKFile type="UnstructuredGrid">
    <UnstructuredGrid>
        <Piece NumberOfPoints="1932" NumberOfCells="3702">
            <Points>
                <DataArray type="Float32" NumberOfComponents="3" format="ascii">
1.648703888116259e-02  1.633650055568226e-02  0.0
0.000000000000000e+00  0.000000000000000e+00  0.0
2.500000000000000e-02  0.000000000000000e+00  0.0
0.000000000000000e+00  2.499999999999947e-02  0.0
3.690741737638669e-02  2.012383435867906e-02  0.0
2.054968162920288e-02  3.655402861450918e-02  0.0
5.000000000000000e-02  0.000000000000000e+00  0.0
0.000000000000000e+00  4.999999999999949e-02  0.0
4.738067992854587e-02  4.613228689711178e-02  0.0
6.207853831590570e-02  2.169591443270835e-02  0.0
2.257793547085357e-02  6.171728005907275e-02  0.0
7.500000000000001e-02  0.000000000000000e+00  0.0
7.571513317572626e-02  4.256048779221274e-02  0.0
0.000000000000000e+00  7.499999999999951e-02  0.0
4.528467746244982e-02  7.507887289236570e-02  0.0
8.752932384265473e-02  2.129200942430512e-02  0.0
6.868311344156318e-02  6.512331519622323e-02  0.0
2.233672535070750e-02  8.753155282007191e-02  0.0
1.000000000000000e-01  0.000000000000000e+00  0.0
9.998803028288583e-02  4.210155465147011e-02  0.0
8.873202379473502e-02  5.885709584179226e-02  0.0
0.000000000000000e+00  9.999999999999953e-02  0.0
6.662872794489434e-02  8.927896944384471e-02  0.0
4.425274912466609e-02  1.006638640911228e-01  0.0
1.124357781808795e-01  2.127372822593607e-02  0.0
8.850804115233581e-02  7.870489259921225e-02  0.0
2.200191104286178e-02  1.127507985771756e-01  0.0
1.108527493336957e-01  6.560293523844458e-02  0.0
1.250000000000000e-01  0.000000000000000e+00  0.0
1.247055958378865e-01  4.278199518113274e-02  0.0
6.570538048596376e-02  1.137699975624695e-01  0.0
0.000000000000000e+00  1.249999999999996e-01  0.0
8.750919440935546e-02  1.022809210819644e-01  0.0
4.371962848842879e-02  1.256152103670619e-01  0.0
1.373871167474155e-01  2.130765713022062e-02  0.0
1.087619844372418e-01  9.089908279723304e-02  0.0
1.377073959065434e-01  6.371261081216822e-02  0.0
2.179522459274512e-02  1.377457526195930e-01  0.0
1.500000000000000e-01  0.000000000000000e+00  0.0
8.702537554834143e-02  1.264393282925779e-01  0.0
1.275884652911285e-01  8.182317528969493e-02  0.0
1.498119541435708e-01  4.240470611279209e-02  0.0
6.526093196166038e-02  1.383793620016342e-01  0.0
1.085569926564010e-01  1.145169457122244e-01  0.0
0.000000000000000e+00  1.499999999999996e-01  0.0
4.344613825908466e-02  1.504742480507760e-01  0.0
1.623043912980782e-01  2.121455821260303e-02  0.0
1.296058915067965e-01  1.022527255165553e-01  0.0
1.509733555384261e-01  8.640030888373265e-02  0.0
1.621930714782790e-01  6.293331184511446e-02  0.0
2.168423822694399e-02  1.627027156628879e-01  0.0
8.678002729626061e-02  1.509484483472114e-01  0.0
1.084642235001428e-01  1.387658271594604e-01  0.0
1.750000000000000e-01  0.000000000000000e+00  0.0
1.744102755949040e-01  4.219925390793441e-02  0.0
6.503627319810017e-02  1.631284971390018e-01  0.0
1.300373722084946e-01  1.263739206611524e-01  0.0
0.000000000000000e+00  1.749999999999996e-01  0.0
4.330534850586648e-02  1.753747592176439e-01  0.0
1.516870300452029e-01  1.133093649630396e-01  0.0
1.739957757596263e-01  7.978810804821471e-02  0.0
1.870910598498986e-01  2.122672838824390e-02  0.0
1.083701164675683e-01  1.633668791526262e-01  0.0
1.860186209630253e-01  6.280729487607101e-02  0.0
8.663901050382504e-02  1.756846291586621e-01  0.0
2.162663192162454e-02  1.876762313902849e-01  0.0
1.738585499765266e-01  1.006783225717474e-01  0.0
1.300847493552960e-01  1.509666040396469e-01  0.0
6.491584196694840e-02  1.879995556474121e-01  0.0
2.000000000000000e-01  0.000000000000000e+00  0.0
1.518291855225829e-01  1.383642749121583e-01  0.0
1.987838675264468e-01  4.239740265718522e-02  0.0
0.000000000000000e+00  1.999999999999996e-01  0.0
4.323313704918642e-02  2.003310845340938e-01  0.0
1.967140442950497e-01  8.594089001255503e-02  0.0
1.737366313744711e-01  1.256526893204705e-01  0.0
1.082882537824470e-01  1.881599269480859e-01  0.0
1.300362436442442e-01  1.757260196758906e-01  0.0
2.118758748181161e-01  2.145798300726988e-02  0.0
8.655429966206900e-02  2.005597467156991e-01  0.0
2.096895227028182e-01  6.341093946279107e-02  0.0
2.159908923790801e-02  2.126679125740964e-01  0.0
1.517975729098740e-01  1.632211523422226e-01  0.0
1.958663681370820e-01  1.128399725690465e-01  0.0
6.485373906552090e-02  2.129449423913744e-01  0.0
1.736088595730832e-01  1.506412126596939e-01  0.0
2.250000000000000e-01  0.000000000000000e+00  0.0
2.233153221832976e-01  4.318544162635635e-02  0.0
0.000000000000000e+00  2.249999999999996e-01  0.0
1.299775416621044e-01  2.005890924492872e-01  0.0
4.320067172348788e-02  2.253148238375647e-01  0.0
2.193730802337435e-01  8.084356370910488e-02  0.0
1.082305262415530e-01  2.130553026190987e-01  0.0
2.178852085616659e-01  1.011265647840496e-01  0.0
1.954953187111990e-01  1.380372083416282e-01  0.0
1.517333539848911e-01  1.880947149852218e-01  0.0
8.650818220931285e-02  2.254983853710905e-01  0.0
2.368877782906127e-01  2.191757696003734e-02  0.0
1.734992738789717e-01  1.755691999214083e-01  0.0
2.336041206463114e-01  6.526027952491432e-02  0.0
2.159009885340249e-02  2.376635574914783e-01  0.0
6.482958987319500e-02  2.379133819862793e-01  0.0
2.173766723827808e-01  1.255867251917726e-01  0.0
1.952841605313486e-01  1.630264287946760e-01  0.0
1.299324059704803e-01  2.255062393200883e-01  0.0
2.500000000000000e-01  0.000000000000000e+00  0.0
2.487814471750644e-01  4.469807748214375e-02  0.0
1.516784525606448e-01  2.130076082412461e-01  0.0
2.387544448962056e-01  8.852073506599606e-02  0.0
0.000000000000000e+00  2.499999999999997e-01  0.0
1.081978598263041e-01  2.379887876641037e-01  0.0
4.319566884673395e-02  2.502950065104362e-01  0.0
1.734206173539853e-01  2.004986729210131e-01  0.0
2.390761521943275e-01  1.130804132831820e-01  0.0
2.170758340399859e-01  1.505037944668027e-01  0.0
8.649340664822587e-02  2.504455476848561e-01  0.0
1.951574807424245e-01  1.879837137407040e-01  0.0
2.622215488651818e-01  2.220481665569837e-02  0.0
2.614820695346557e-01  7.099336497940485e-02  0.0
2.159295323213017e-02  2.626500881325453e-01  0.0
1.516384103467766e-01  2.379420702779284e-01  0.0
6.483089805685656e-02  2.628681653014784e-01  0.0
1.299045789484146e-01  2.504378973045941e-01  0.0
2.388360020264229e-01  1.379934364405237e-01  0.0
2.168903849512308e-01  1.754718991917548e-01  0.0
1.733675146408510e-01  2.254414233696610e-01  0.0
2.609925233921267e-01  9.994239282339697e-02  0.0
2.750000000000000e-01  0.000000000000000e+00  0.0
2.750331993561912e-01  4.473156478139861e-02  0.0
1.081848584027741e-01  2.629197426995876e-01  0.0
0.000000000000000e+00  2.749999999999997e-01  0.0
1.950828901214055e-01  2.129414567183766e-01  0.0
4.320655258516250e-02  2.752560644046229e-01  0.0
8.649769542381869e-02  2.753757462730995e-01  0.0
2.606130878337264e-01  1.254327875023853e-01  0.0
2.386150458001213e-01  1.629688527230138e-01  0.0
2.167845835045835e-01  2.004447343121045e-01  0.0
1.516085219027593e-01  2.628795322049298e-01  0.0
2.875722986974213e-01  2.195067547643937e-02  0.0
2.836145511815020e-01  8.861380836680731e-02  0.0
1.733290685625037e-01  2.503902652090422e-01  0.0
2.895716066726273e-01  6.536339896200456e-02  0.0
2.160218393217395e-02  2.876244975936667e-01  0.0
1.298879191590725e-01  2.753647328835592e-01  0.0
6.484668448399560e-02  2.878001044071620e-01  0.0
1.950355158870433e-01  2.379025528120580e-01  0.0
2.603382781776652e-01  1.504771922072522e-01  0.0
2.384770323750685e-01  1.879530600891971e-01  0.0
2.824932260064688e-01  1.131634461467989e-01  0.0
1.081843070393703e-01  2.878372172780500e-01  0.0
3.000000000000000e-01  0.000000000000000e+00  0.0
3.005777852872796e-01  4.328894344632398e-02  0.0
2.167244265526632e-01  2.254178903130335e-01  0.0
0.000000000000000e+00  2.999999999999997e-01  0.0
4.322316526934575e-02  3.001996608759944e-01  0.0
8.650974909859421e-02  3.002896465989474e-01  0.0
1.732966148931102e-01  2.753395156317067e-01  0.0
2.820820133244266e-01  1.380582844198535e-01  0.0
1.515846636499730e-01  2.878148010736685e-01  0.0
3.032759841113871e-01  8.103295244355477e-02  0.0
2.601656879909975e-01  1.754715628429269e-01  0.0
2.384002226019616e-01  2.129364531874690e-01  0.0
1.949985841203965e-01  2.628644688740672e-01  0.0
3.040540035087401e-01  1.013202686217369e-01  0.0
3.126216847091609e-01  2.152730276225591e-02  0.0
3.135854319091818e-01  6.362772889914348e-02  0.0
1.298766981112544e-01  3.002871639728744e-01  0.0
2.161215131727661e-02  3.125921750498877e-01  0.0
2.166841860294718e-01  2.503905126914231e-01  0.0
6.486477620235230e-02  3.127207673065217e-01  0.0
2.818609850933606e-01  1.630176628686522e-01  0.0
1.081872648830591e-01  3.127514473927999e-01  0.0
3.038190614614340e-01  1.257398812717386e-01  0.0
2.600695185378025e-01  2.004596408440993e-01  0.0
2.383548152877832e-01  2.379173679981188e-01  0.0
3.250000000000000e-01  0.000000000000000e+00  0.0
1.732670856344313e-01  3.002906259536324e-01  0.0
3.251846593094467e-01  4.258867713572214e-02  0.0
1.949650788020794e-01  2.878271248459016e-01  0.0
0.000000000000000e+00  3.249999999999997e-01  0.0
4.323885735170972e-02  3.251393645953301e-01  0.0
3.257533621462042e-01  8.630850284569025e-02  0.0
8.652262935910628e-02  3.252042763010561e-01  0.0
1.515644506534284e-01  3.127540156582485e-01  0.0
3.035738908830823e-01  1.506091139444689e-01  0.0
2.166500986788026e-01  2.753627939465457e-01  0.0
2.817398947299146e-01  1.879938306205650e-01  0.0
2.600162573550854e-01  2.254451549621675e-01  0.0
3.256339288597320e-01  1.131447980273959e-01  0.0
1.298691682591659e-01  3.252169401953564e-01  0.0
3.374490925284661e-01  2.133972505035062e-02  0.0
2.383207679226252e-01  2.628966857747106e-01  0.0
3.373409395283998e-01  6.320672873782317e-02  0.0
2.162008114931926e-02  3.375610139688483e-01  0.0
[...]
            <PointData Scalars="u_h">
                <DataArray type="Float32" Name="u_h" format="ascii">
2.065896473570992e-02
0.000000000000000e+00
0.000000000000000e+00
0.000000000000000e+00
5.755412861674424e-02
5.702394433904257e-02
0.000000000000000e+00
0.000000000000000e+00
1.618486144449281e-01
1.033815086808946e-01
9.974139952083499e-02
0.000000000000000e+00
2.337940683835716e-01
0.000000000000000e+00
2.275986173375206e-01
1.382513461253077e-01
3.046852769435810e-01
1.248943040014580e-01
0.000000000000000e+00
2.959530925210736e-01
3.553804330969017e-01
0.000000000000000e+00
3.659759017884771e-01
2.617932813061972e-01
1.713317098782145e-01
4.406614170214378e-01
1.362214913816923e-01
4.721636998941218e-01
0.000000000000000e+00
3.616624513478410e-01
3.970913440173426e-01
0.000000000000000e+00
5.011189175122284e-01
2.712393813725169e-01
2.010888622541059e-01
5.741012905003839e-01
5.459160155394888e-01
1.347776297806450e-01
0.000000000000000e+00
5.196926702145674e-01
6.135143445485670e-01
4.105615738642642e-01
3.929595412042557e-01
6.246857079474517e-01
0.000000000000000e+00
2.558953840036187e-01
2.244046354605777e-01
6.973360011036654e-01
7.205759330854590e-01
6.054468384289837e-01
1.208667204746438e-01
4.912099197163650e-01
6.204018607442746e-01
0.000000000000000e+00
4.496343682054189e-01
3.525756324119180e-01
7.288929992608385e-01
0.000000000000000e+00
2.166722750845633e-01
8.068178388792893e-01
7.465589203884727e-01
2.431690817982756e-01
5.576572332452842e-01
6.528099177599717e-01
4.162875791034432e-01
9.557872127780510e-02
8.461661137800151e-01
6.907786217554034e-01
2.786990330720033e-01
0.000000000000000e+00
8.043234652736401e-01
4.816223850779692e-01
0.000000000000000e+00
1.568041046450752e-01
8.349684387528759e-01
8.874066506331114e-01
4.410908638438268e-01
5.858930897597717e-01
2.587020970092913e-01
3.011566251859921e-01
6.920383523870718e-01
6.116867868247024e-02
7.233269064492439e-01
9.321120811012372e-01
1.779325381003259e-01
8.414116794454568e-01
0.000000000000000e+00
5.090215507645325e-01
0.000000000000000e+00
4.240140980580565e-01
8.184118143104301e-02
8.318103848144507e-01
2.815369106873875e-01
9.351205216400914e-01
9.294207461325783e-01
5.722153576877910e-01
1.567196498659816e-01
2.711207020854163e-01
7.136169885402676e-01
7.267349473248831e-01
2.088047035817584e-02
5.993458710488628e-02
9.789097274589446e-01
8.360672432396159e-01
2.207440170810260e-01
0.000000000000000e+00
5.331890412540204e-01
3.654258524499837e-01
8.945583419505986e-01
0.000000000000000e+00
9.451588852536345e-02
-9.981808474276326e-04
5.165439146442862e-01
9.865182347623377e-01
9.288609679981360e-01
-2.903706218877583e-03
6.615020453976009e-01
2.748409638492821e-01
7.793841173809214e-01
-2.141415900476118e-02
1.230150919159131e-01
-6.379214692437062e-02
-4.018664492281628e-03
9.843310920929705e-01
7.881773534608624e-01
2.691992607463800e-01
9.497289015432714e-01
0.000000000000000e+00
5.269074234942891e-01
-1.016157867573827e-01
0.000000000000000e+00
4.225799691426060e-01
-8.369157722308070e-02
-1.621277051460173e-01
9.980954520360764e-01
8.860900155761372e-01
5.706166502103168e-01
-1.313247787934221e-01
2.648561294528618e-01
8.774645019200528e-01
-4.350438911746384e-03
7.089279912902225e-01
-6.162600965355657e-02
-2.282950118814271e-01
-1.812407474569379e-01
1.424955878860294e-01
9.472906930629260e-01
7.012562416123616e-01
9.684869280397844e-01
-2.877544607318180e-01
0.000000000000000e+00
4.914419786211319e-01
2.974056835491620e-01
0.000000000000000e+00
-1.582300081584084e-01
-3.055244162439563e-01
-2.774168879724255e-01
9.666445333759589e-01
-3.728001761167154e-01
8.015845773248271e-01
8.039207902110538e-01
4.479195504589038e-01
-1.514428840430686e-01
9.005899706339319e-01
2.467240893650184e-01
6.603012697092313e-01
-4.302964964524414e-01
-9.584395997104027e-02
-4.798753725101049e-03
-2.810632426557456e-01
8.703330338389680e-01
-4.459037743470211e-01
9.431696546909879e-01
5.819563112911726e-01
1.508532223325514e-01
0.000000000000000e+00
-5.234042654485417e-01
4.539096802178023e-01
-4.305641306097394e-01
0.000000000000000e+00
-2.173856880105138e-01
7.876036041082054e-01
-4.192563888870264e-01
-5.779620792900825e-01
8.954056564199636e-01
-3.064979425773459e-01
6.887947645671567e-01
3.030995070600083e-01
8.796144023144655e-01
-5.904653948415503e-01
2.258854491202078e-01
-1.609216804301065e-01
6.080884168006159e-01
-1.207197760115952e-01
-3.535887022256596e-01
-5.607555070022944e-01
7.600186858446126e-01
-6.676593987366849e-01
8.778327987684538e-01
4.398018644489566e-01
-7.183717282689436e-01
-5.374895612350129e-03
-5.782478873168174e-01
0.000000000000000e+00
4.124812998870954e-01
7.801965016597939e-01
0.000000000000000e+00
-7.268634693960579e-01
-2.553837109270727e-01
6.876406782211819e-01
-4.569561214176618e-01
-4.922742077483134e-01
7.903168375415958e-01
5.501256702251166e-01
-6.932121330205577e-01
1.477550613112537e-01
8.191829571698824e-01
-3.133171016705098e-01
2.020085241319111e-01
5.489632717768435e-01
-8.395912166922691e-01
-1.338094705772083e-01
-7.935190642024342e-01
-3.917239150369378e-01
-6.210782506173637e-01
-8.432831239757360e-01
6.254907519499507e-01
7.777694690527466e-01
-7.083365980325235e-01
2.862813376661761e-01
6.466083254047664e-01
-1.587633274522029e-01
0.000000000000000e+00
7.268848564914955e-01
-8.049224405869851e-01
3.640163810059500e-01
0.000000000000000e+00
-5.906376719560508e-01
-2.684797059285418e-01
-5.173736678457846e-01
-7.284006147169882e-01
6.603080814626202e-01
3.992613711749815e-01
-9.312655117010894e-01
7.245034786851637e-01
-5.651652988889765e-03
-9.295230832694298e-01
-4.497802672333298e-01
4.767218369190956e-01
1.735882143203462e-01
-8.904956126129960e-01
-1.338184281889802e-01
-8.858508275500249e-01
-3.916603257126588e-01
-6.208360534261029e-01
6.235978679832136e-01
-8.102321933365105e-01
4.779466668361362e-01
6.525415011182037e-01
1.337919218604919e-01
-8.043773391430004e-01
-2.970866805900441e-01
6.368992478567713e-01
5.246417537929179e-01
0.000000000000000e+00
3.045310866512674e-01
-6.968449329916696e-01
0.000000000000000e+00
-2.553447192260386e-01
-9.779840737422451e-01
-4.919634864587035e-01
-9.856102412835942e-01
-6.924255034992114e-01
5.165503793006657e-01
-9.285913784216026e-01
2.485222589366272e-01
6.038742051287397e-01
-1.448739149756638e-01
-9.506273488736391e-01
-5.595133187770367e-01
3.827027156266584e-01
-8.418034220176498e-01
1.401660968763919e-01
5.173919645955253e-01
-1.207328523091910e-01
-3.533082044371962e-01
-8.757992298184513e-01
-5.598917048982622e-01
3.296182325015320e-01
5.126611154986113e-01
-7.251481552171485e-01
-5.401088859681816e-03
-4.094415710903492e-01
5.183041439511228e-01
-9.843574467647006e-01
4.056317163332490e-01
-9.290650404097532e-01
2.357396660416322e-01
-7.672663683208780e-01
0.000000000000000e+00
-9.980843790713348e-01
0.000000000000000e+00
-2.172176380103382e-01
-4.184067859116720e-01
-8.368263728308031e-01
-5.886754582645667e-01
3.710034609585323e-01
1.101768315428562e-01
-9.691387496125549e-01
4.669770620590072e-01
-2.589008112852214e-01
-6.340237974939732e-01
-7.153781496198369e-01
2.818938781483533e-01
3.982614126093489e-01
3.790802590011010e-01
1.029371515969629e-01
-9.000253986181511e-01
-9.582170054027804e-02
-2.803504844841998e-01
-8.868432485998711e-01
-4.441075679129095e-01
-9.479511089642667e-01
1.927438448569283e-01
3.697687502832963e-01
-5.749211578007128e-01
-1.201823962005257e-01
-7.892725310586939e-01
-4.871529149100900e-01
3.822717305870457e-01
-9.677275265467439e-01
2.829799788511330e-01
-7.966517377286464e-01
1.615508247483275e-01
0.000000000000000e+00
-6.631864251549339e-01
0.000000000000000e+00
-1.578029824662976e-01
-3.038438826849306e-01
-9.448000091502672e-01
-4.272598313912667e-01
2.359234178439382e-01
2.547723929973335e-01
-4.556192620817676e-03
3.261412766250834e-01
-3.388763455259408e-01
-5.189376399231121e-01
-6.678250238985596e-01
-8.051236347755378e-01
2.661833951631182e-01
1.755665631213159e-01
-7.026022197782497e-01
6.316120524981546e-02
-8.814130670436136e-01
-8.716949183383381e-01
-6.151783201603719e-02
-1.799059077164966e-01
-2.848007079871702e-01
-5.722864264334181e-01
7.866975896759089e-02
-3.684091039238603e-01
2.365243125319421e-01
-2.015170869893417e-01
-8.972013386482223e-01
1.520507586830709e-01
2.441367716542557e-01
-5.245011801350280e-01
-7.832390565492390e-01
-4.246791176451836e-01
8.340975789941700e-02
0.000000000000000e+00
0.000000000000000e+00
1.315293464537447e-01
-8.800067201841894e-01
-8.291446630490257e-02
-1.594961838193299e-01
-2.240073660960014e-01
-5.835684314492523e-01
1.228993004406257e-01
-8.645412368634529e-02
-6.904248230743245e-01
1.949324232679848e-01
-2.717399984477913e-01
1.100795050066348e-01
-3.788513527886421e-01
-4.496612856554840e-01
-6.588949543467787e-01
1.322465080330318e-01
6.337776481552022e-02
-7.618727366173964e-01
-8.220948430656744e-01
2.168112575143957e-02
-2.118225734857204e-02
-2.993506317582986e-01
-6.182533885648452e-02
-9.760706807739418e-02
-1.258721641732536e-01
-7.925557009414428e-01
-3.165909024927460e-03
1.248151954742322e-01
-2.432260484869477e-01
1.155369622932225e-01
5.595215657616581e-03
-1.446687770599805e-01
-5.192079241965372e-01
-7.289009302235901e-01
-5.303526047536843e-04
-4.416375289738775e-01
2.680140141522572e-03
3.725927721086219e-03
0.000000000000000e+00
-3.049524483547000e-01
0.000000000000000e+00
-7.805755177007190e-01
1.000656757502121e-04
-5.520366430643665e-01
4.626099731590300e-04
1.132599446804757e-03
4.156918180616657e-02
-1.291056597073877e-01
1.988357409540624e-03
-1.527655388911981e-01
8.480212537969756e-02
-3.762931964573846e-01
-6.275964701744852e-01
6.775033993031059e-03
-6.088483558829715e-01
-4.978859853803729e-02
-7.276542236767628e-01
2.825419858009548e-03
-2.056806265278181e-02
2.122788361063786e-02
6.229767979250739e-02
-1.234690498012178e-01
-6.627224778651103e-01
9.909853867051804e-02
1.289144523536145e-01
-1.290085529634802e-01
-4.612740809802376e-02
4.427324739654281e-02
-1.496554175829364e-01
-2.425228810901037e-01
-2.882020646966088e-01
1.494370615585543e-01
7.095754786639082e-03
-4.726310755616988e-01
-1.139154436267008e-01
-6.389871661590506e-01
3.480494284859032e-03
-1.205474887076105e-01
-7.846685508663287e-02
-4.012455267717444e-01
0.000000000000000e+00
-6.552551346141801e-01
0.000000000000000e+00
8.309306420774211e-02
1.603340753204130e-01
1.590499586518099e-01
2.260898265603325e-01
2.754528750730611e-01
-1.263672720437163e-03
-1.294732956016029e-01
-4.800419855950812e-01
5.126370404154383e-03
-3.323031109766159e-01
-1.007212964072481e-01
-2.559646125225437e-01
-5.228002368580505e-01
3.046890432701416e-01
-1.598806736548984e-01
-6.066534050154059e-01
-2.284040220627194e-01
-6.346743071701845e-02
3.840461202511954e-03
6.155240095703960e-02
-2.552469818665206e-01
-5.187615471914336e-01
1.802866751869603e-01
1.569758941435528e-01
2.860365200272928e-01
-1.356246724929339e-01
3.710119497821834e-01
-4.694024277187991e-02
1.782990801700261e-03
4.288767175557485e-01
-2.002524868171221e-01
3.115748561616073e-01
-7.204691256636803e-02
-3.896493925709456e-01
-2.503817612322806e-01
-2.287985425753837e-01
-5.218700710097757e-01
-1.639220916187601e-01
-5.149839909158449e-01
0.000000000000000e+00
4.552997046882550e-01
0.000000000000000e+00
1.579276890798662e-01
3.044547917984459e-01
4.288497417118718e-01
-3.676475394766357e-01
-3.315008926890191e-01
-3.015870683469473e-01
5.219147406212193e-01
-3.861190311728226e-01
-2.105067174774971e-03
-8.814691179315336e-02
-3.709877751991467e-02
-2.515220609694068e-01
2.955399377493650e-01
-1.802092340057765e-01
5.767309819125256e-01
1.433010266717360e-01
-4.089298036478697e-01
-4.699042684156343e-01
-1.061100235874066e-01
4.482778695962820e-01
-3.658603314733764e-01
3.812734400739513e-03
-3.729194571539863e-01
9.583991315935725e-02
2.805871801864633e-01
4.449185484973506e-01
5.767542110296898e-01
5.892097939215190e-01
6.663384126532347e-01
-5.940825624807974e-03
1.077429493252996e-03
-1.117688381164890e-01
-1.208167776577403e-01
-2.457779560312347e-01
-1.144348817838060e-01
-2.782459532705899e-01
-3.097519261344273e-01
-4.579980814100456e-01
-3.882303791050241e-01
-5.014698231757221e-01
7.070237296089186e-01
-3.719576125795512e-01
0.000000000000000e+00
0.000000000000000e+00
2.172791864297191e-01
4.187311409976378e-01
-1.943319814314061e-01
-4.996414415853310e-01
4.082613105388568e-01
5.895983765161302e-01
5.583757960948779e-01
7.172922656292936e-01
2.576919596450393e-01
3.897114614120505e-02
-3.955537611004453e-01
-9.287948347620254e-03
-3.778787901158286e-02
7.923625755560790e-01
-1.417341473776627e-01
6.957689869802347e-01
-2.234730877260392e-01
-1.434099103404611e-01
-2.777823716084847e-01
1.189582320766559e-01
-3.295459036352220e-01
-4.491872811370674e-01
-2.375843195318280e-01
1.207360761180823e-01
8.092418867396171e-01
3.533966026418660e-01
5.602272230505170e-01
7.260473942340383e-01
-5.899295969958257e-01
3.329199734779388e-03
8.386201213110153e-01
7.295436353618102e-02
4.238194168736371e-02
-6.180394833385724e-01
-3.078368266825789e-01
-1.179808975933497e-02
-1.155030346281727e-01
-5.190979998643007e-01
-1.488265904829631e-01
-3.547155825313650e-01
8.896153471377531e-01
6.333468430743719e-01
4.864315228362793e-01
-2.501457008202785e-01
0.000000000000000e+00
-2.385878609440943e-01
7.666462528377713e-01
0.000000000000000e+00
2.553508155921942e-01
-7.990605507624583e-02
-5.861413225968084e-01
4.920120523250900e-01
3.381223024227775e-01
6.926490516834897e-01
8.425055331989771e-01
8.752490115119812e-01
1.183043653338016e-01
9.972610233550572e-02
9.305108067319915e-01
-4.725528824715823e-01
3.629521380981775e-03
2.007427148879305e-01
-1.320180043087260e-02
-1.741892975740784e-01
-2.255311792606962e-01
-1.413692360545930e-01
-4.967141105780648e-01
-7.111267517591865e-01
-1.980086444900090e-01
9.501582378472467e-01
-6.355577954186108e-01
-1.242285422228129e-01
1.338105890933869e-01
3.916191880862767e-01
6.207277363044784e-01
8.566942493044884e-02
8.043290026102866e-01
-7.087915115376716e-01
6.676595305097254e-01
9.288948673572440e-01
7.965427783498128e-01
1.825771246722194e-01
1.223070888746435e-01
1.166884481784234e-01
-3.623838548209387e-01
5.242892212358427e-01
-7.434182924285811e-02
9.852263128395693e-01
-1.333156002400635e-02
8.999816074807810e-01
-3.585361735231073e-01
0.000000000000000e+00
-1.200597427682825e-01
3.786037359013150e-01
-1.264437722976890e-01
-6.371527394564628e-01
0.000000000000000e+00
2.684380747001760e-01
2.364407222541628e-03
9.691654598744498e-01
5.171785134428704e-01
7.279781193482003e-01
-5.450233187127814e-01
8.853439309281006e-01
2.429538830099874e-01
2.289415963914734e-01
9.776795687285206e-01
-7.720819762815426e-01
2.289314624073031e-01
8.403821897886893e-02
-8.062981989119365e-01
1.222104352817835e-01
-2.016303770603823e-01
-1.852208180721562e-01
-1.214247427089196e-02
-5.031987097682941e-01
9.981803059279174e-01
7.836446962521030e-01
-8.695330210913926e-02
6.592449703077262e-01
-4.242996031472309e-02
1.337925819863747e-01
8.818819953294029e-01
3.915608196115356e-01
-7.638101005279543e-01
-6.843318513411094e-01
1.288185752811759e-01
6.205754987056499e-01
8.040025193868291e-01
5.195117911110217e-01
9.283614422719442e-01
3.131192442197379e-01
-4.122442539813420e-01
2.341189538164741e-01
9.453365626972970e-01
2.528586653050465e-01
9.845132858570144e-01
6.185929130579747e-03
3.765613341078746e-01
1.157836453351941e-01
0.000000000000000e+00
-3.198672919466406e-01
-9.720315367148404e-03
-6.472154388327205e-01
-4.526440567931250e-02
9.683303887586231e-01
0.000000000000000e+00
-8.708031065454592e-01
4.582820283423094e-02
2.552897551357017e-01
4.918486738245366e-01
-6.108760749716972e-01
6.922223033281615e-01
2.427660050782845e-01
8.416729613441599e-01
-7.932938818039545e-01
-8.656818607424105e-01
3.612343018933815e-01
7.297776919210679e-01
9.292736037264774e-01
8.230311885361349e-01
3.666290353336814e-01
1.969220112208838e-01
-2.261193740898642e-01
2.520486019469649e-01
6.096731050147483e-01
-1.051759530286281e-01
9.486119572711688e-01
9.806783038248441e-02
-4.671146569843075e-01
8.810073556808987e-01
-6.276080161795231e-03
9.452912588894031e-04
1.206934899064799e-01
-7.784298275255979e-01
4.734131615205033e-01
3.532936916745487e-01
1.297016772388283e-01
5.599018208444567e-01
8.982666052354277e-01
7.251976234629405e-01
-4.565621087290191e-01
8.371145739473498e-01
4.529713969574176e-01
3.683321119921215e-01
3.330528703892037e-01
8.875536966607339e-01
3.842651062916556e-01
1.197787159974646e-01
-8.987441442307940e-01
0.000000000000000e+00
-9.337354541281438e-01
2.266113765854557e-01
-6.721391806437494e-01
-2.411130694541093e-01
7.082327054116634e-02
-6.147766170014939e-01
8.728194732118003e-01
-2.127844774302434e-03
7.289711256040993e-01
0.000000000000000e+00
4.716270697471350e-02
2.172293751416211e-01
6.402509207748257e-01
4.186123107372220e-01
-8.861321606398992e-01
5.890157067654237e-01
7.819504844112305e-01
2.009806533070121e-01
7.158484964276733e-01
5.036675253008017e-01
5.240183797780927e-01
7.900526615193230e-01
5.003828418489672e-01
-2.459968278506190e-01
-8.432156234117757e-01
3.329620860367212e-01
7.939901391331284e-01
3.643322039427262e-01
8.062997428564717e-01
8.522929560232741e-03
3.908312913229390e-01
1.790632733818903e-01
-3.906154551205799e-01
3.673594474519087e-02
2.328532293269717e-03
-7.507738852466591e-01
9.580564356527656e-02
-4.895391419537166e-01
7.633635961138915e-01
2.806389966380416e-01
8.886411997286309e-02
-9.610121595793845e-01
4.447849634088915e-01
5.757495727370402e-01
6.641362935590447e-01
5.897140514692983e-01
2.526781675585259e-01
5.135307051284106e-01
-9.623805302936760e-01
7.038396846436389e-01
4.988591798205509e-01
6.082316191880391e-01
0.000000000000000e+00
2.572907085160970e-01
6.568828326256066e-01
-7.063171985053076e-01
3.088081488941238e-01
5.234037212516043e-01
-1.281090702990918e-01
6.919655019501497e-01
1.140778800000084e-01
-5.415462366663345e-01
-8.472388810489693e-04
6.644013839745081e-01
6.657177528050649e-03
0.000000000000000e+00
1.580169915538520e-01
-8.640207808022681e-01
4.104264174095811e-01
3.047399950390963e-01
4.285908730182112e-01
1.219579575607265e-01
-2.586113970671462e-01
5.202689220191880e-01
6.438432131776922e-01
6.293245586171111e-01
-8.742443997856705e-01
5.736616678411562e-01
6.180809823851012e-01
4.808472192920768e-01
2.797149929331084e-01
4.485767137677717e-01
5.851592542921461e-01
1.469145196153422e-01
2.231475898253668e-01
-9.955672705537957e-01
-2.792262696329806e-01
-5.056249617566436e-01
3.802672643482280e-02
-3.824704844257914e-02
-6.815853958680020e-01
5.538080083017269e-01
6.157461130511588e-02
1.042484271145285e-02
5.167217432963258e-01
1.807508320213699e-01
4.716024014304186e-01
2.865726573816589e-01
3.703648945376093e-01
-9.436092284626759e-01
5.205407118920520e-01
-9.627016770930374e-01
4.263910193645182e-01
1.431862476586165e-01
7.111768309600787e-01
6.573433992761223e-01
0.000000000000000e+00
3.898938070499677e-01
4.513449031703657e-01
5.860193994634973e-01
-7.193208491203950e-01
4.075218881270522e-01
3.544775106964750e-01
4.818609385081362e-01
1.038244686912532e-02
4.434460715957100e-01
1.157461331217889e-01
-4.326686006943062e-01
2.794186704959623e-01
-4.164541052193705e-02
-7.181210499420258e-02
0.000000000000000e+00
-7.989031772756877e-01
8.345129034931575e-02
-2.622892289119754e-01
1.324424867010308e-02
1.613730709408832e-01
4.030989494848636e-01
2.266540521163949e-01
2.740854612099112e-01
-8.894734909488855e-01
7.695374296880447e-01
3.012714228423007e-01
7.089691630897840e-01
1.504453468352125e-01
6.282382749199313e-01
-9.840019455861843e-01
-9.896995401557028e-01
3.736535227625790e-01
3.068096786428541e-01
4.966884757267383e-01
2.989151671978064e-01
3.746466195700552e-01
2.257836339519761e-01
-5.025589345847877e-01
-1.415191612758643e-01
3.312123610174165e-01
-2.882520774979754e-03
2.900808520947950e-01
-5.759400428022885e-01
-1.171492908219659e-01
2.135035316679904e-02
-9.827537014486577e-02
3.332578817179468e-01
6.335025331221318e-02
-8.838866671663382e-01