<?xml version="1.0" encoding="UTF-8"?>
<VTKFile type="UnstructuredGrid">
    <UnstructuredGrid>
        <Piece NumberOfPoints="1932" NumberOfCells="3702">
            <Points>
                <DataArray type="Float32" NumberOfComponents="3" format="ascii">
1.648703888116259e-02  1.633650055568226e-02  0.0
0.000000000000000e+00  0.000000000000000e+00  0.0
2.500000000000000e-02  0.000000000000000e+00  0.0
0.000000000000000e+00  2.499999999999947e-02  0.0
3.690741737638669e-02  2.012383435867906e-02  0.0
2.054968162920288e-02  3.655402861450918e-02  0.0
5.000000000000000e-02  0.000000000000000e+00  0.0
0.000000000000000e+00  4.999999999999949e-02  0.0
4.738067992854587e-02  4.613228689711178e-02  0.0
6.207853831590570e-02  2.169591443270835e-02  0.0
2.257793547085357e-02  6.171728005907275e-02  0.0
7.500000000000001e-02  0.000000000000000e+00  0.0
7.571513317572626e-02  4.256048779221274e-02  0.0
0.000000000000000e+00  7.499999999999951e-02  0.0
4.528467746244982e-02  7.507887289236570e-02  0.0
8.752932384265473e-02  2.129200942430512e-02  0.0
6.868311344156318e-02  6.512331519622323e-02  0.0
2.233672535070750e-02  8.753155282007191e-02  0.0
1.000000000000000e-01  0.000000000000000e+00  0.0
9.998803028288583e-02  4.210155465147011e-02  0.0
8.873202379473502e-02  5.885709584179226e-02  0.0
0.000000000000000e+00  9.999999999999953e-02  0.0
6.662872794489434e-02  8.927896944384471e-02  0.0
4.425274912466609e-02  1.006638640911228e-01  0.0
1.124357781808795e-01  2.127372822593607e-02  0.0
8.850804115233581e-02  7.870489259921225e-02  0.0
2.200191104286178e-02  1.127507985771756e-01  0.0
1.108527493336957e-01  6.560293523844458e-02  0.0
1.250000000000000e-01  0.000000000000000e+00  0.0
1.247055958378865e-01  4.278199518113274e-02  0.0
6.570538048596376e-02  1.137699975624695e-01  0.0
0.000000000000000e+00  1.249999999999996e-01  0.0
8.750919440935546e-02  1.022809210819644e-01  0.0
4.371962848842879e-02  1.256152103670619e-01  0.0
1.373871167474155e-01  2.130765713022062e-02  0.0
1.087619844372418e-01  9.089908279723304e-02  0.0
1.377073959065434e-01  6.371261081216822e-02  0.0
2.179522459274512e-02  1.377457526195930e-01  0.0
1.500000000000000e-01  0.000000000000000e+00  0.0
8.702537554834143e-02  1.264393282925779e-01  0.0
1.275884652911285e-01  8.182317528969493e-02  0.0
1.498119541435708e-01  4.240470611279209e-02  0.0
6.526093196166038e-02  1.383793620016342e-01  0.0
1.085569926564010e-01  1.145169457122244e-01  0.0
0.000000000000000e+00  1.499999999999996e-01  0.0
4.344613825908466e-02  1.504742480507760e-01  0.0
1.623043912980782e-01  2.121455821260303e-02  0.0
1.296058915067965e-01  1.022527255165553e-01  0.0
1.509733555384261e-01  8.640030888373265e-02  0.0
1.621930714782790e-01  6.293331184511446e-02  0.0
2.168423822694399e-02  1.627027156628879e-01  0.0
8.678002729626061e-02  1.509484483472114e-01  0.0
1.084642235001428e-01  1.387658271594604e-01  0.0
1.750000000000000e-01  0.000000000000000e+00  0.0
1.744102755949040e-01  4.219925390793441e-02  0.0
6.503627319810017e-02  1.631284971390018e-01  0.0
1.300373722084946e-01  1.263739206611524e-01  0.0
0.000000000000000e+00  1.749999999999996e-01  0.0
4.330534850586648e-02  1.753747592176439e-01  0.0
1.516870300452029e-01  1.133093649630396e-01  0.0
1.739957757596263e-01  7.978810804821471e-02  0.0
1.870910598498986e-01  2.122672838824390e-02  0.0
1.083701164675683e-01  1.633668791526262e-01  0.0
1.860186209630253e-01  6.280729487607101e-02  0.0
8.663901050382504e-02  1.756846291586621e-01  0.0
2.162663192162454e-02  1.876762313902849e-01  0.0
1.738585499765266e-01  1.006783225717474e-01  0.0
1.300847493552960e-01  1.509666040396469e-01  0.0
6.491584196694840e-02  1.879995556474121e-01  0.0
2.000000000000000e-01  0.000000000000000e+00  0.0
1.518291855225829e-01  1.383642749121583e-01  0.0
1.987838675264468e-01  4.239740265718522e-02  0.0
0.000000000000000e+00  1.999999999999996e-01  0.0
4.323313704918642e-02  2.003310845340938e-01  0.0
1.967140442950497e-01  8.594089001255503e-02  0.0
1.737366313744711e-01  1.256526893204705e-01  0.0
1.082882537824470e-01  1.881599269480859e-01  0.0
1.300362436442442e-01  1.757260196758906e-01  0.0
2.118758748181161e-01  2.145798300726988e-02  0.0
8.655429966206900e-02  2.005597467156991e-01  0.0
2.096895227028182e-01  6.341093946279107e-02  0.0
2.159908923790801e-02  2.126679125740964e-01  0.0
1.517975729098740e-01  1.632211523422226e-01  0.0
1.958663681370820e-01  1.128399725690465e-01  0.0
6.485373906552090e-02  2.129449423913744e-01  0.0
1.736088595730832e-01  1.506412126596939e-01  0.0
2.250000000000000e-01  0.000000000000000e+00  0.0
2.233153221832976e-01  4.318544162635635e-02  0.0
0.000000000000000e+00  2.249999999999996e-01  0.0
1.299775416621044e-01  2.005890924492872e-01  0.0
4.320067172348788e-02  2.253148238375647e-01  0.0
2.193730802337435e-01  8.084356370910488e-02  0.0
1.082305262415530e-01  2.130553026190987e-01  0.0
2.178852085616659e-01  1.011265647840496e-01  0.0
1.954953187111990e-01  1.380372083416282e-01  0.0
1.517333539848911e-01  1.880947149852218e-01  0.0
8.650818220931285e-02  2.254983853710905e-01  0.0
2.368877782906127e-01  2.191757696003734e-02  0.0
1.734992738789717e-01  1.755691999214083e-01  0.0
2.336041206463114e-01  6.526027952491432e-02  0.0
2.159009885340249e-02  2.376635574914783e-01  0.0
6.482958987319500e-02  2.379133819862793e-01  0.0
2.173766723827808e-01  1.255867251917726e-01  0.0
1.952841605313486e-01  1.630264287946760e-01  0.0
1.299324059704803e-01  2.255062393200883e-01  0.0
2.500000000000000e-01  0.000000000000000e+00  0.0
2.487814471750644e-01  4.469807748214375e-02  0.0
1.516784525606448e-01  2.130076082412461e-01  0.0
2.387544448962056e-01  8.852073506599606e-02  0.0
0.000000000000000e+00  2.499999999999997e-01  0.0
1.081978598263041e-01  2.379887876641037e-01  0.0
4.319566884673395e-02  2.502950065104362e-01  0.0
1.734206173539853e-01  2.004986729210131e-01  0.0
2.390761521943275e-01  1.130804132831820e-01  0.0
2.170758340399859e-01  1.505037944668027e-01  0.0
8.649340664822587e-02  2.504455476848561e-01  0.0
1.951574807424245e-01  1.879837137407040e-01  0.0
2.622215488651818e-01  2.220481665569837e-02  0.0
2.614820695346557e-01  7.099336497940485e-02  0.0
2.159295323213017e-02  2.626500881325453e-01  0.0
1.516384103467766e-01  2.379420702779284e-01  0.0
6.483089805685656e-02  2.628681653014784e-01  0.0
1.299045789484146e-01  2.504378973045941e-01  0.0
2.388360020264229e-01  1.379934364405237e-01  0.0
2.168903849512308e-01  1.754718991917548e-01  0.0
1.733675146408510e-01  2.254414233696610e-01  0.0
2.609925233921267e-01  9.994239282339697e-02  0.0
2.750000000000000e-01  0.000000000000000e+00  0.0
2.750331993561912e-01  4.473156478139861e-02  0.0
1.081848584027741e-01  2.629197426995876e-01  0.0
0.000000000000000e+00  2.749999999999997e-01  0.0
1.950828901214055e-01  2.129414567183766e-01  0.0
4.320655258516250e-02  2.752560644046229e-01  0.0
8.649769542381869e-02  2.753757462730995e-01  0.0
2.606130878337264e-01  1.254327875023853e-01  0.0
2.386150458001213e-01  1.629688527230138e-01  0.0
2.167845835045835e-01  2.004447343121045e-01  0.0
1.516085219027593e-01  2.628795322049298e-01  0.0
2.875722986974213e-01  2.195067547643937e-02  0.0
2.836145511815020e-01  8.861380836680731e-02  0.0
1.733290685625037e-01  2.503902652090422e-01  0.0
2.895716066726273e-01  6.536339896200456e-02  0.0
2.160218393217395e-02  2.876244975936667e-01  0.0
1.298879191590725e-01  2.753647328835592e-01  0.0
6.484668448399560e-02  2.878001044071620e-01  0.0
1.950355158870433e-01  2.379025528120580e-01  0.0
2.603382781776652e-01  1.504771922072522e-01  0.0
2.384770323750685e-01  1.879530600891971e-01  0.0
2.824932260064688e-01  1.131634461467989e-01  0.0
1.081843070393703e-01  2.878372172780500e-01  0.0
3.000000000000000e-01  0.000000000000000e+00  0.0
3.005777852872796e-01  4.328894344632398e-02  0.0
2.167244265526632e-01  2.254178903130335e-01  0.0
0.000000000000000e+00  2.999999999999997e-01  0.0
4.322316526934575e-02  3.001996608759944e-01  0.0
8.650974909859421e-02  3.002896465989474e-01  0.0
1.732966148931102e-01  2.753395156317067e-01  0.0
2.820820133244266e-01  1.380582844198535e-01  0.0
1.515846636499730e-01  2.878148010736685e-01  0.0
3.032759841113871e-01  8.103295244355477e-02  0.0
2.601656879909975e-01  1.754715628429269e-01  0.0
2.384002226019616e-01  2.129364531874690e-01  0.0
1.949985841203965e-01  2.628644688740672e-01  0.0
3.040540035087401e-01  1.013202686217369e-01  0.0
3.126216847091609e-01  2.152730276225591e-02  0.0
3.135854319091818e-01  6.362772889914348e-02  0.0
1.298766981112544e-01  3.002871639728744e-01  0.0
2.161215131727661e-02  3.125921750498877e-01  0.0
2.166841860294718e-01  2.503905126914231e-01  0.0
6.486477620235230e-02  3.127207673065217e-01  0.0
2.818609850933606e-01  1.630176628686522e-01  0.0
1.081872648830591e-01  3.127514473927999e-01  0.0
3.038190614614340e-01  1.257398812717386e-01  0.0
2.600695185378025e-01  2.004596408440993e-01  0.0
2.383548152877832e-01  2.379173679981188e-01  0.0
3.250000000000000e-01  0.000000000000000e+00  0.0
1.732670856344313e-01  3.002906259536324e-01  0.0
3.251846593094467e-01  4.258867713572214e-02  0.0
1.949650788020794e-01  2.878271248459016e-01  0.0
0.000000000000000e+00  3.249999999999997e-01  0.0
4.323885735170972e-02  3.251393645953301e-01  0.0
3.257533621462042e-01  8.630850284569025e-02  0.0
8.652262935910628e-02  3.252042763010561e-01  0.0
1.515644506534284e-01  3.127540156582485e-01  0.0
3.035738908830823e-01  1.506091139444689e-01  0.0
2.166500986788026e-01  2.753627939465457e-01  0.0
2.817398947299146e-01  1.879938306205650e-01  0.0
2.600162573550854e-01  2.254451549621675e-01  0.0
3.256339288597320e-01  1.131447980273959e-01  0.0
1.298691682591659e-01  3.252169401953564e-01  0.0
3.374490925284661e-01  2.133972505035062e-02  0.0
2.383207679226252e-01  2.628966857747106e-01  0.0
3.373409395283998e-01  6.320672873782317e-02  0.0
2.162008114931926e-02  3.375610139688483e-01  0.0
[...]
            <PointData Vectors="u_h">
                <DataArray type="Float32" NumberOfComponents="3" Name="u_h" format="ascii">
1.241038644918792e+00  1.233323247508639e+00  0.0
6.265213809653231e-01  6.322946785725231e-01  0.0
4.778928630606006e-01  2.045422564482430e+00  0.0
2.005411095724071e+00  4.663839307914361e-01  0.0
1.507231349479577e+00  2.742793273593491e+00  0.0
2.712328495719790e+00  1.426668333978165e+00  0.0
5.259647781149241e-01  3.837199174801631e+00  0.0
3.627872776404658e+00  4.667003210304539e-01  0.0
3.220632204931635e+00  3.018002372641095e+00  0.0
1.529352480645752e+00  4.531454911115519e+00  0.0
4.279045065150226e+00  1.239346832189037e+00  0.0
4.865016004138898e-01  5.630797438687576e+00  0.0
2.801381813501139e+00  4.883676197151831e+00  0.0
5.009183884630724e+00  3.404242080370524e-01  0.0
4.808035987579198e+00  2.035218436954755e+00  0.0
1.375707999630957e+00  6.243197602976572e+00  0.0
4.100553807384429e+00  3.541799944256559e+00  0.0
5.462138742787258e+00  7.747984046042978e-01  0.0
4.445078572145397e-01  7.273645311798770e+00  0.0
2.514947416399926e+00  6.296505532384820e+00  0.0
3.575163448328333e+00  4.851629268799188e+00  0.0
5.889516302244867e+00  1.757629438008621e-01  0.0
5.088642726018251e+00  2.191340759634417e+00  0.0
5.669396543594573e+00  1.020189609046838e+00  0.0
1.247035377167877e+00  7.747303741977795e+00  0.0
4.385540794701286e+00  3.587776990834524e+00  0.0
6.055582650009682e+00  2.578774542173718e-01  0.0
3.492693591566546e+00  5.370766738211204e+00  0.0
3.935692731579534e-01  8.747358093847346e+00  0.0
2.247107566617695e+00  7.500358199108987e+00  0.0
5.610486127632444e+00  7.009785337574107e-01  0.0
6.187612284006900e+00  -2.199820331634683e-03  0.0
5.069182803432668e+00  1.824945208131885e+00  0.0
5.953488598079371e+00  -2.722269453842404e-02  0.0
1.064086911767400e+00  9.073209774486767e+00  0.0
4.383275864731661e+00  3.265188407773476e+00  0.0
2.865942473128881e+00  6.585629943973776e+00  0.0
6.050399310671952e+00  -2.712340448964558e-01  0.0
3.243802299508995e-01  1.000956687890631e+01  0.0
5.286423174126480e+00  -1.150923111648729e-01  0.0
3.708062924056482e+00  4.594450162140368e+00  0.0
1.853537418024838e+00  8.620538794100161e+00  0.0
5.593998303901622e+00  -8.257468505012019e-01  0.0
4.764058449707341e+00  1.026379808912513e+00  0.0
5.880965025674269e+00  -1.770746883411836e-01  0.0
5.654670557641306e+00  -1.051194851578754e+00  0.0
8.529110376631180e-01  1.017419160719851e+01  0.0
4.061679052609983e+00  2.533974443788841e+00  0.0
3.190725806414597e+00  4.696858936177504e+00  0.0
2.328149442929844e+00  7.418444952630143e+00  0.0
5.454356068741672e+00  -7.682392856031002e-01  0.0
5.011947074332777e+00  -2.056209655512542e+00  0.0
4.735840126133650e+00  -1.341388268758801e+00  0.0
2.505411021057480e-01  1.102043923521207e+01  0.0
1.429940472973654e+00  9.503751897633672e+00  0.0
5.037993185728390e+00  -2.267893743376604e+00  0.0
4.238458459100577e+00  -1.548341066521797e-01  0.0
4.999893116130109e+00  -3.336815989139001e-01  0.0
4.804385317773061e+00  -1.968698399826940e+00  0.0
3.543352877499370e+00  1.480105962108228e+00  0.0
2.415073126440583e+00  5.956217236329337e+00  0.0
6.285276514363144e-01  1.101877970996178e+01  0.0
4.260654736566799e+00  -3.612232497721017e+00  0.0
1.700314775116232e+00  8.040475067464717e+00  0.0
4.255142556570842e+00  -3.811890284020793e+00  0.0
4.324995567170231e+00  -1.189073147369135e+00  0.0
2.704984922736904e+00  3.280277086300402e+00  0.0
4.012341514562706e+00  -2.893376947697403e+00  0.0
3.990577845670320e+00  -3.493417124889842e+00  0.0
1.722979070789243e-01  1.176071886313921e+01  0.0
3.528965770544960e+00  -1.688892680557600e+00  0.0
9.962754118769691e-01  1.011869663670542e+01  0.0
3.629559145754715e+00  -4.576171375026033e-01  0.0
3.483349220217036e+00  -2.695195113903438e+00  0.0
1.793241684348084e+00  5.519285540342276e+00  0.0
2.851296229892002e+00  -8.667306117768359e-02  0.0
3.372931156154347e+00  -5.550234711857535e+00  0.0
3.404049476650650e+00  -5.370207277127524e+00  0.0
3.933975765170856e-01  1.158551044002314e+01  0.0
3.082025098482509e+00  -5.206532561886791e+00  0.0
1.127446464964782e+00  8.387319405619541e+00  0.0
2.771812139342992e+00  -1.494149024939572e+00  0.0
3.175898118715260e+00  -4.664651249351869e+00  0.0
2.041709692541656e+00  1.779179069600334e+00  0.0
2.550990279648456e+00  -4.382480768800696e+00  0.0
2.709657506299488e+00  -3.476089708818040e+00  0.0
9.063957948807655e-02  1.221625239172956e+01  0.0
5.362661705320276e-01  1.044385434958659e+01  0.0
1.903753621535273e+00  -5.370404551896436e-01  0.0
2.464940175535682e+00  -7.335739532523586e+00  0.0
1.820201432212958e+00  -3.160206053766866e+00  0.0
9.945015943944888e-01  6.440677612384137e+00  0.0
2.154473238861306e+00  -6.957364001427112e+00  0.0
1.186278114917418e+00  3.566484910183964e+00  0.0
2.048640969887791e+00  -1.901669579546563e+00  0.0
2.514458491234292e+00  -7.188271434269510e+00  0.0
1.605490717390698e+00  -6.098922969244860e+00  0.0
1.427944753465343e-01  1.186538138038089e+01  0.0
2.302449164674071e+00  -6.513665250458388e+00  0.0
4.591403555568257e-01  8.396695613321222e+00  0.0
9.470741186343156e-01  -1.653942740442866e+00  0.0
8.606180845188757e-01  -4.846409704035693e+00  0.0
1.258702159572134e+00  -8.554132568194046e-02  0.0
1.851169144570892e+00  -5.358540040736777e+00  0.0
1.283986759325054e+00  -8.592768623230207e+00  0.0
2.183873918875534e-03  1.237382756843593e+01  0.0
1.969493606710808e-02  1.045755614210532e+01  0.0
1.606794415417099e+00  -9.016684268927211e+00  0.0
3.943751036666085e-01  5.462785489132409e+00  0.0
-8.217479856634680e-03  -5.642323829938607e-01  0.0
7.240658166590267e-01  -7.690694392456585e+00  0.0
-2.102582028684014e-02  -3.317953280165016e+00  0.0
1.668704684309632e+00  -8.915058301742283e+00  0.0
4.361101086363520e-01  1.836464991376584e+00  0.0
1.205981395699682e+00  -3.814578869691019e+00  0.0
-2.862366540429262e-02  -6.399047853304309e+00  0.0
1.468703189474170e+00  -8.286258211815044e+00  0.0
-1.303533667265512e-01  1.185853456411940e+01  0.0
-3.450946005421081e-01  7.712273968815020e+00  0.0
-9.698608851972713e-01  -1.652782259451155e+00  0.0
5.411403801071535e-01  -9.969458032509932e+00  0.0
-9.133705080159604e-01  -4.839074383166057e+00  0.0
-2.313225708830774e-02  -9.015116103146385e+00  0.0
4.327436888973614e-01  -2.008792034900615e+00  0.0
1.029130045475742e+00  -7.175019806333587e+00  0.0
8.702939915030624e-01  -1.044912086628211e+01  0.0
-4.052740842026967e-01  3.819977170062020e+00  0.0
-9.044936747634402e-02  1.222162921422110e+01  0.0
-5.086940759501135e-01  1.032588150040375e+01  0.0
-7.771845334212646e-01  -7.676495962024099e+00  0.0
-1.918899680416064e+00  -5.364718053874782e-01  0.0
9.397090339241899e-01  -1.040508441597009e+01  0.0
-1.859173047652343e+00  -3.152814993153871e+00  0.0
-1.659238318416020e+00  -6.077025232853797e+00  0.0
-4.120738233003045e-01  -7.718022768506645e-02  0.0
3.935960813855856e-01  -5.669346853813169e+00  0.0
7.475467904290519e-01  -9.833734830693514e+00  0.0
-5.779270594033376e-01  -9.951989189282967e+00  0.0
-3.962753279926678e-01  1.157261417279488e+01  0.0
-1.167078117952926e+00  5.340925150120285e+00  0.0
-1.418477822992022e-02  -1.096551436429304e+01  0.0
-1.110440162732762e+00  8.169212736655849e+00  0.0
-2.791279069233390e+00  -1.490556982159570e+00  0.0
-1.328082637682480e+00  -8.560544434559555e+00  0.0
-2.597091810528890e+00  -4.361084094935720e+00  0.0
3.171272582656582e-01  -1.150917936774142e+01  0.0
-3.815896022276626e-01  -3.890365595110455e+00  0.0
3.145872222862049e-01  -8.777116969586949e+00  0.0
-1.257497616980063e+00  1.787720914591444e+00  0.0
-2.202253361039361e+00  -6.915976238231038e+00  0.0
-1.749805588461495e-01  1.176523852275966e+01  0.0
-1.001626959818364e+00  1.005152580629579e+01  0.0
3.903679808615843e-01  -1.153181301073968e+01  0.0
-3.641519302097461e+00  -4.563459877562909e-01  0.0
-3.514946311867398e+00  -2.680600474123670e+00  0.0
-3.127514888095561e+00  -5.164224784990298e+00  0.0
-8.979364067270765e-01  -1.041321054855028e+01  0.0
-1.227886381253451e+00  -1.983688689056253e+00  0.0
-1.640999611522774e+00  -8.965530581687910e+00  0.0
-1.726944533287458e+00  6.175998140699657e+00  0.0
-3.185930764397818e-01  -7.319024619105931e+00  0.0
2.022203514476025e-01  -1.102693602432039e+01  0.0
-3.374284095037831e-01  -1.149050034990407e+01  0.0
-1.972906063726105e+00  3.403776637837920e+00  0.0
-6.343215387055510e-01  1.101039132934176e+01  0.0
-1.745319238419438e+00  7.954449053205315e+00  0.0
-2.503752735319220e+00  -7.273199078745217e+00  0.0
-4.339615922635637e+00  -1.182782725401853e+00  0.0
-6.340072483855176e-03  -1.210372336316204e+01  0.0
-4.027267350831807e+00  -3.458650915200776e+00  0.0
-1.094469227352269e+00  -5.577202555934066e+00  0.0
-3.412928054737737e+00  -5.482897500752188e+00  0.0
-2.053408102194112e+00  -1.055801014971125e-01  0.0
-2.284412043061274e-01  -1.003299758679015e+01  0.0
6.835863741215319e-02  -1.219898184641514e+01  0.0
-2.520112654234599e-01  1.102415167522797e+01  0.0
-1.694700658302020e+00  -8.845742637933332e+00  0.0
-1.437808604949174e+00  9.481027521422272e+00  0.0
-9.597765411959251e-01  -1.035061837077625e+01  0.0
-5.008066782951757e+00  -3.315615524941948e-01  0.0
-4.827832105537970e+00  -1.946821370494155e+00  0.0
-2.509352167754237e+00  5.146931250912793e+00  0.0
-4.291517955000197e+00  -3.748789310558708e+00  0.0
-2.544633336687558e+00  -7.105766882950852e+00  0.0
-1.939929617201103e+00  -3.694149414426533e+00  0.0
-4.032999423581897e-01  -1.149362487590726e+01  0.0
-8.621298036805332e-01  -8.629958855420130e+00  0.0
-1.183525883557279e-01  -1.176633912457448e+01  0.0
-2.801840547539010e+00  1.636334796471014e+00  0.0
-3.436070501924787e+00  -5.277625657073310e+00  0.0
-8.548877456410513e-01  1.017667216259509e+01  0.0
-7.321426588568891e-02  -1.217891266102583e+01  0.0
-2.286716218209393e+00  7.412356077285317e+00  0.0
-5.464128752007109e+00  -7.592228554801689e-01  0.0
-5.065587238130639e+00  -2.218792351819712e+00  0.0
-4.291924470483969e+00  -3.515505643086998e+00  0.0
-1.641464051939611e+00  -6.932872666626889e+00  0.0
-1.489089703955348e+00  -8.200425834149669e+00  0.0
-2.781193839468541e+00  -1.822862545527595e+00  0.0
-5.492065868248804e-01  -1.084052406128817e+01  0.0
-2.326737147223673e+00  -6.415300253874662e+00  0.0
2.002397456215936e-03  -1.234944151518139e+01  0.0
-7.615865881074829e-01  -9.760976371855543e+00  0.0
-3.248725387408828e-01  1.001640475340676e+01  0.0
-1.841932172966039e+00  8.635683603037270e+00  0.0
-3.401086864691834e+00  2.944012297412259e+00  0.0
-5.885205657848345e+00  -1.742461933308575e-01  0.0
-3.200753465981159e+00  -4.552813828916556e+00  0.0
-5.670326727661180e+00  -1.022459086352878e+00  0.0
-3.081955109861587e+00  5.374386699696228e+00  0.0
-2.084036698581449e-01  -1.096875942112287e+01  0.0
-5.038314857071483e+00  -1.967184433861177e+00  0.0
-2.497520845923131e+00  -5.082008860708980e+00  0.0
-1.186013239797408e+00  -9.498134561344116e+00  0.0
-4.034116238842862e+00  -2.766688090743842e+00  0.0
-1.843448011244713e-01  -1.199167732166741e+01  0.0
-3.545691931054923e+00  -1.228905510855526e-01  0.0
1.213131213310824e-01  -1.172537850545296e+01  0.0
-1.063068438034140e+00  9.086065318502092e+00  0.0
-2.870717975037612e+00  6.589622371983057e+00  0.0
-1.873476148334013e+00  -5.249185389264683e+00  0.0
-6.055026928416772e+00  -2.610840357469282e-01  0.0
-1.046050534746856e+00  -7.074682772980523e+00  0.0
-5.610845046241320e+00  -7.613810787732461e-01  0.0
-4.753253656658729e+00  -1.203885518044968e+00  0.0
-2.732045341016017e+00  -3.357996041624899e+00  0.0
-1.973181990845760e+00  -7.851038322231194e+00  0.0
-3.356276230047121e+00  -3.229067636759114e+00  0.0
-3.238710797046848e-01  -8.686657274383332e+00  0.0
-6.166035941332946e-01  -1.113678268949054e+01  0.0
-3.803891938873951e+00  4.014874835399437e+00  0.0
1.975568815646285e-01  -1.197053432651465e+01  0.0
-3.930881393142232e-01  8.760540213560029e+00  0.0
-4.167492173775532e+00  1.258883953221793e+00  0.0
-3.544848934574519e+00  -1.554356081727352e+00  0.0
-2.235924292363145e+00  7.548871141766429e+00  0.0
-6.187075264665633e+00  2.380757408679083e-04  0.0
2.280770356129123e-01  -9.955141621572469e+00  0.0
-5.959815187415537e+00  2.660661363056908e-03  0.0
-5.294384035726001e+00  8.076611755013952e-03  0.0
-4.238782193735070e+00  1.601458934521756e-02  0.0
-2.842896927095976e+00  -6.035569995753501e+00  0.0
-1.258156486576823e+00  -9.857959078983768e+00  0.0
-1.228620137139327e+00  -3.696769257627569e+00  0.0
-4.141314187271147e+00  -1.527589739049877e+00  0.0
1.197745583385063e-02  -1.168719454038125e+01  0.0
-2.074996884152025e+00  -1.784506719906452e+00  0.0
5.594173938027763e-01  -1.077907706974773e+01  0.0
-3.385170384674990e+00  5.576413910733296e+00  0.0
-1.253508186128376e+00  7.763549448559949e+00  0.0
-4.081392526520068e-01  -5.555394387037086e+00  0.0
-6.054168679835172e+00  2.629942198166115e-01  0.0
-2.870501375675793e+00  2.838406745914150e-02  0.0
-5.608854838092959e+00  7.718956886598001e-01  0.0
-4.750842274677627e+00  1.227325094794819e+00  0.0
-4.573764436204108e+00  2.020247789109593e+00  0.0
3.119994526279234e-01  -7.211650226835463e+00  0.0
-2.054773896028336e+00  -8.263712235382863e+00  0.0
-3.720120574068748e+00  -4.199515885070443e+00  0.0
-4.214215078099380e-01  -1.090307978020248e+01  0.0
-3.542591495124106e+00  1.597460322014043e+00  0.0
6.386304624923207e-01  -1.109500322564252e+01  0.0
-4.772989127098510e+00  -9.984980828847567e-02  0.0
-4.425733523841788e+00  3.428527150263901e+00  0.0
-4.522267145522496e-01  7.284817722631154e+00  0.0
-2.571727829449011e+00  6.268861530315132e+00  0.0
8.659885054588244e-01  -8.533700063774694e+00  0.0
-5.883833749710824e+00  1.748201213328698e-01  0.0
-5.667112480471243e+00  1.028465508333717e+00  0.0
-1.291143707264255e+00  4.288184165670250e-02  0.0
-5.033501671641790e+00  1.984472430706036e+00  0.0
-4.527236390037383e-01  -1.880835204711617e+00  0.0
-4.029173055100460e+00  2.798974459965294e+00  0.0
-2.939448232615910e+00  -6.487666692091030e+00  0.0
-2.073584361427457e+00  1.855236397958764e+00  0.0
-1.067567963817707e+00  -9.688143646315650e+00  0.0
-4.527493392857215e+00  -2.482100199525620e+00  0.0
4.557178188391537e-01  -1.088254111947857e+01  0.0
3.650695034297471e-01  -3.762957052294652e+00  0.0
1.202228687581095e+00  -9.417923713035455e+00  0.0
-3.815420621690096e+00  4.489577931167114e+00  0.0
-2.728131099842379e+00  3.412907755231120e+00  0.0
-1.409589801859572e+00  6.247272899826171e+00  0.0
-5.158698822992910e+00  1.249444943867770e+00  0.0
-5.461142733112974e+00  7.617121548785866e-01  0.0
-5.058679398510385e+00  2.231118311316029e+00  0.0
1.087447903231029e+00  -5.453812299717002e+00  0.0
-4.283926873663976e+00  3.540374268967760e+00  0.0
-1.873559769671765e+00  -8.148174746432369e+00  0.0
-3.838373666569108e+00  -4.675967863299525e+00  0.0
-3.193697013793232e+00  4.594217780916344e+00  0.0
2.302593367600049e-02  -1.016609660801774e+01  0.0
1.287697184680576e+00  -9.797857613343433e+00  0.0
-5.200814079243192e+00  -9.988844674838663e-01  0.0
-4.530472725215085e-01  1.977820446578417e+00  0.0
-4.824094169533955e+00  2.706720235795738e+00  0.0
-1.227295187459863e+00  3.778591273633742e+00  0.0
-2.835916118750991e+00  4.848320128728847e+00  0.0
1.647785901082368e+00  -6.819810238692715e+00  0.0
-4.986704778922730e-01  5.629202847537321e+00  0.0
3.823048954981410e-01  5.384919789900544e-02  0.0
-5.004847899501693e+00  3.323931457922966e-01  0.0
-4.820056508473816e+00  1.954422655743094e+00  0.0
-4.280242284027678e+00  3.768253960921646e+00  0.0
-1.869181825330807e+00  5.313879505790309e+00  0.0
-3.425256030873238e+00  5.309357805606461e+00  0.0
-2.773528037730683e+00  -6.415299617277377e+00  0.0
-6.259157524563209e-01  -9.012585379137867e+00  0.0
1.202325009503030e+00  -1.840442203010842e+00  0.0
-4.678001150167504e+00  -2.977783094251231e+00  0.0
1.110745031353897e+00  -9.649884653037461e+00  0.0
1.993269573426456e+00  -7.754930290659917e+00  0.0
-2.318689098245988e+00  6.463992935965313e+00  0.0
-4.130925555720577e+00  3.314219719224801e+00  0.0
-5.667765303554122e+00  6.732245404323119e-03  0.0
-5.505040040409716e+00  1.333876712778906e+00  0.0
-1.529439332919637e+00  4.581379030489338e+00  0.0
1.931887915545073e+00  -3.554580943706306e+00  0.0
-4.333638995248680e+00  1.186144425259826e+00  0.0
-4.013439544873120e+00  3.472973397368196e+00  0.0
-4.089282379017334e-01  5.643157159601479e+00  0.0
-3.397697367293233e+00  5.508049834312657e+00  0.0
3.622011871741838e-01  3.865565424989951e+00  0.0
-1.439449086692351e+00  -7.525403291713123e+00  0.0
-3.694062705973797e+00  -4.637309738140940e+00  0.0
-2.532158463178294e+00  7.141873657741940e+00  0.0
6.820624866484361e-01  -8.995162016978274e+00  0.0
-1.043218944310522e+00  7.144756930365099e+00  0.0
2.089379045668651e+00  -8.189812754579849e+00  0.0
-5.384066291075713e+00  -1.545139956594558e+00  0.0
1.199575255670146e+00  1.953157407210125e+00  0.0
-5.174496987397909e+00  1.873210611626846e+00  0.0
2.503559333401614e+00  -4.953386735229114e+00  0.0
-3.033041301528024e+00  3.317355385801383e+00  0.0
-5.331762714082920e-01  3.837171162241335e+00  0.0
-1.481743162854806e+00  8.252639126749221e+00  0.0
-3.635976629702630e+00  4.574896558313493e-01  0.0
-3.501154858825934e+00  2.689521272713407e+00  0.0
-3.107953649837036e+00  5.183932986516249e+00  0.0
2.026931233694551e+00  5.858578412711424e-02  0.0
-2.486029079687798e+00  7.300455308675150e+00  0.0
-2.352140504636998e+00  -5.835517406421594e+00  0.0
-5.859833440946045e+00  6.031522788162377e-01  0.0
3.370137854727090e-02  -7.897630325153927e+00  0.0
-4.557436392239133e+00  -2.968082624483235e+00  0.0
1.922821757928400e+00  -8.097640947884635e+00  0.0
-1.682250930023392e+00  8.882452954195712e+00  0.0
2.863325190118619e+00  -5.928546976336153e+00  0.0
3.068770410173999e-01  7.299409447598542e+00  0.0
-5.878804932361160e+00  -5.184054638131113e-01  0.0
-4.369376359290126e+00  2.051028141085108e+00  0.0
-3.245716961532512e-01  8.756587457828291e+00  0.0
-1.614323842634004e+00  2.805751861150453e+00  0.0
2.768819525975520e+00  -1.667038889048196e+00  0.0
1.079645456772023e+00  5.556051501460391e+00  0.0
-2.781893274200482e+00  1.494577871947020e+00  0.0
-2.575245280485158e+00  4.375202830783286e+00  0.0
-2.178853894492232e+00  6.936732217670144e+00  0.0
-7.568628631212281e-01  9.811900568739597e+00  0.0
-7.836706331659604e-01  -6.458378558801432e+00  0.0
-1.622775613466758e+00  8.990332792883494e+00  0.0
-3.289203085103557e+00  -4.091302900491111e+00  0.0
1.502655935246933e+00  -7.496331629067137e+00  0.0
1.923805622570867e+00  3.666443936479587e+00  0.0
-5.401739378420132e+00  9.966904747409506e-01  0.0
-5.283963151480265e+00  -1.561574914669054e+00  0.0
2.975185235241670e+00  -6.407845796266247e+00  0.0
3.357019583681044e+00  -3.087057004315537e+00  0.0
-9.491636223854858e-01  1.038371179990425e+01  0.0
-3.164127864715695e+00  1.706354101792007e+00  0.0
-5.558330734761155e-01  1.951110221017611e+00  0.0
-1.911171754309623e+00  5.378117427108351e-01  0.0
-6.130970162865913e+00  -2.293643309722438e-02  0.0
2.763284375266783e+00  1.782860243172849e+00  0.0
-1.839463283633165e+00  3.161405220108946e+00  0.0
-1.631417332606395e+00  6.092115701494513e+00  0.0
-1.303515488973985e+00  8.576639515395421e+00  0.0
2.218814406374448e-01  1.001955008190297e+01  0.0
-1.704736347617997e+00  -4.807228226692002e+00  0.0
8.595210021710056e-01  -6.446884596880246e+00  0.0
8.544268939483679e-01  8.615920202250964e+00  0.0
-4.171035897147481e+00  -2.448851930131001e+00  0.0
-8.811190144273251e-01  1.043132951388720e+01  0.0
-5.979565485354325e+00  3.361277501471921e-01  0.0
2.824221409504192e+00  -6.361270733676598e+00  0.0
-2.081199681192957e-01  1.101357245179637e+01  0.0
3.736343872671842e+00  -4.090911410791530e+00  0.0
-5.811443279559291e+00  -5.496485787911572e-01  0.0